186
Lattice="6.5063 0.0 0.0 0.0 11.912 0.0 0.0 0.0 18.995" Properties=species:S:1:pos:R:3:forces:R:3 Na4=T Sn2=T Ge5=T O16=T energy=-5181581.941033012 stress="23224.333052781283 -1297.1090609289026 -839.2033641870058 -1297.1090609289026 10112.801398238858 -4551.849681932627 -839.2033641870058 -4551.849681932627 10315.384215927112" free_energy=-5181581.941033012 pbc="T T T"
Sn      -7.84523945     -10.66854669       6.28105148   70283.77310274 -233579.96843068 -223865.49784098
Sn      -5.38236260       6.84020793      27.78651877    8050.44592562   27469.59359039   -6055.43633325
Sn       3.86738967      -2.03473575      12.17327569   75606.26812063  -23433.27332532   38337.49637125
Sn      -9.00307359       5.30939611      -6.18053118   -1888.80015777   -3274.85722599    4487.78433930
Sn       5.22316553      12.56618071      -2.33392131    4123.59003781   -2157.98809998    2871.67928790
Sn       9.04018346       4.85920615      13.56227458   -2340.34677772   -1421.66703736    7981.96716962
Sn      17.79172465      18.88738999       4.39694917   -6649.12250886    5309.22387570   -1922.80101401
Sn       3.71030908      -1.22514747       3.49372156    1046.92385258   -7425.21934224    -880.55814222
Ge       6.15848091       9.40704720      13.35506002  152056.59769475  321951.93207722   49886.02210037
Ge      -1.35084808      12.41022990       4.60842054   -2181.62944636   16435.21091739  -25448.39816066
Ge     -14.44472147      13.07030569       8.14680513 1270998.94007191  372406.17043812 1792801.40027580
Ge       6.18277929      22.79800612      -6.44741433   49839.14604787  -92993.28042607 -286495.85625888
Ge       1.30879238      15.77881877       3.49533363    -577.87517208   -9942.97140956    2381.95911637
Ge      16.36067365      15.06899487       8.59040359  -57095.04576329  -31217.62549518  -94235.95779502
Ge      -0.58407186       6.94025317      14.20706451  -36079.34721364   48575.30179876  -21978.55118928
Ge       6.36956474      12.32045992      10.99608177 -569107.78845893  248620.00122839 -841729.76569253
Ge       3.80966889       9.03921798       6.07390050   -9753.94062925   -3077.91201664   -1429.91474269
Ge       7.73860300       7.82824582      16.63790849   -5001.42547457   -3578.35342986   -6623.79996315
Ge      -2.66266012      10.93398502       8.11444953   33568.27329168  -46739.56183145  146841.27345511
Ge       4.77376812       4.34434351      17.30733560    -273.00108057    1528.19079601   -6183.20342363
Ge     -19.63399132       5.53950511      14.83292073 -820913.37059091  670036.10214419 -430633.24143940
Ge      -0.34887723      10.78645258      -5.79209731 -290649.79842290 -408103.70583078  290889.98028429
Ge      22.73325287     -12.39472563      -2.73122611    1270.14136084   -4096.00577408  -11141.50079007
Ge       6.85742111      18.31309973      14.99675884  132752.48662592   45530.57935424   18756.59922519
Ge       7.67442088      -3.18082297      28.66807798  -56138.21242609   74609.34788928   83853.61880195
Ge       3.75009334      22.02493858       5.49014708  108970.59172283   34379.24848669  125029.63279089
Ge       9.97630038     -17.66188536      12.91542913    -279.13264862    -591.44368322   -2799.55131706
Ge      12.04811660      11.38637118      10.03687569 -1903737.18406946 9814367.72392078 -962090.21438889
Ge      15.03451576      -5.34278695      31.67959680   -4757.23769360     555.12833339     828.30360930
Ge      -3.56501030       9.90388958       7.65264700    2064.75311816  -50532.03118251   48831.39281500
Na       3.07676806       0.25812551      18.42987677    -840.61058794    1880.65617805   -1151.99965561
Na       5.30550776       9.17667770       5.77941418   -3630.12012083    2992.37071452   24809.93671792
Na       8.04091467       4.46152958       2.70514305    -217.40790662   -1599.07634888    4492.61357734
Na      -2.41378745       0.97032386      12.22980293   75059.42124112  -26634.47441002  -84207.12399960
Na      -0.82952069       0.80820714      15.14940389   48510.08677522  -20482.86121618   12094.21713102
Na       4.02817271      10.38202176       5.93124049  -60960.37847545    4865.03374314  -47189.26093373
Na       5.15292898      -2.18164900       7.56918728   87111.05807264  136694.41513251 -119867.57003008
Na      -1.24910026       3.06079400      12.00844973   -2179.57656299   -4663.38295874  -13290.00818181
Na      -3.59171803      -1.09923575       0.84881655     658.92462668     155.48740488    -152.31988714
Na       2.58692979      -0.59842698       6.24163908  -26191.92863745   20265.65674308  -29961.75226594
Na     -13.35477524      17.15985876       6.68249073    1736.82388423    8848.36614646    2193.36999576
Na      14.71736266      12.75525552      17.58651457    2011.76358828    2584.88871247    1209.60123922
Na       7.39646201      14.49293765      15.85533368     -92.27614808   -5061.38715994    -592.79397789
Na       1.62911059       0.63145935       4.81403150    2240.16136432   -1590.85147196   -2814.05068594
Na       1.86255606       1.51815013      15.19632053   -1247.94936490     656.48033922     390.50215086
Na      -3.89460360      12.44017608      11.39826493   21065.16800567   17174.48771453   -9281.17413613
Na      -0.55700060     -12.99771547       8.37450221 -134835.44686537 -202500.58859998  -92507.18220926
Na      13.52957833       1.48747057      16.32957175   21892.18469945   24444.32187776  -21154.64341848
Na       1.68078888      -2.12155589      11.32887077  -34298.15285457   18498.61928385  -15340.32931734
Na      17.15318666      24.11237137      -0.11766389    4898.70485931   -8920.54379239   -1134.65849669
O        1.83605347      11.67514277      10.84611661  -38253.57595861  -20887.50995029  -35248.14398835
O        1.48113144       8.66965635       7.67582040  -11671.79210213    4194.39597570   -5689.17581050
O       10.15999488       3.63006560      37.98035068    2441.15785315   -4258.22371279     372.89469562
O       34.72224153      27.38697070       5.69308609    4878.79602316   10697.01149606    4337.03233855
O       -9.86350034       9.45316803       9.20123476   46778.98208674   38850.66845174   15197.66372956
O      -10.69890620      19.02664145      25.70354871  194463.27941203  124283.98909819  335765.67338169
O       -6.59395152       0.36122544      16.51983857    3676.92556463  -11424.17854869  -20098.32047162
O        7.52228013      15.19581103       3.86686512   -2987.04934513   18675.75846260   -7733.96736817
O        4.90043109      10.05650487      20.52945594    -158.25704189    -240.30401670    -655.75165723
O        3.54144655      18.86275731     -10.34400012   -5593.99708800   69037.45615959   -9749.88283858
O       -2.26185211       1.01357229      24.81486927   15115.41138254  -60651.09400876  -61037.10607963
O       13.25762223      -4.54449081      32.17478404   -4787.96967599  -19103.79851736    4407.63563687
O       -2.68166987       0.63583512      18.83217422   -3285.79790011    5136.71846140    1834.14682824
O       -4.67674162       8.04628483      13.28890109    6709.02372750   -2173.66980145    5766.12042312
O        2.67217181       7.47803056       8.17926800   14744.60220701  -12026.01320742  -42856.79538908
O       12.12340292      -1.66239659      13.14846227 -1469209.56779640  472992.35672662 -1052137.43420571
O        6.71909162      12.59229251      17.19922710   -6643.15561267     542.23591071     562.82938427
O        0.38658300      -0.01955950      12.81757787   70255.10156404  226836.59787408 -199571.04977340
O        8.89701692      17.05232471      15.66320250   10967.45907020   -5487.07362771    4846.23515692
O      -17.47916957       5.14345264      -6.65802361  -10589.84501775     114.38766585    2974.84316785
O        4.47365799      21.27067501      11.50969080   36854.01030331  196077.29412339  -42077.70147125
O       15.50560750       9.19891775      21.72612945     180.18576380     862.78223311    -105.75124828
O       -0.96774020      14.44458475       8.75605426 -129085.30986031 -682452.26050813 -381938.90816112
O        8.64332305      -1.98052840       1.82513036     315.26423549     344.61342350   -1136.91169819
O       -1.90334409      -2.87394585      -1.19716081    -578.22284992    -324.47087146    2420.20554334
O        5.98415391       1.22141698      12.07292388  -35177.48280856   48806.38493149  -28987.47081854
O       16.22762819      -4.79324949      22.26507064     964.16983018   -3058.86543834   -2084.33332630
O        1.70413280       1.79021617      -2.43980121    2985.72692339    4693.14937676   -1605.85682014
O        3.73743414       8.88052038     -10.36705215  -20347.96018697   21086.58202532   22236.58912242
O        6.61951968       2.68442136      15.72876235     652.77282844   -1096.41197636    1817.51651968
O        7.21192355       9.92884202      14.92321670  -52476.76020824   47284.48239378  -68131.11323980
O        8.02747824      11.33868022       1.41545907      39.59765501     466.12103905    -940.22330425
O        1.93485516      18.82381410     -12.95825222 1657892.61940279  568745.34244110  638281.96681448
O        1.00016210       4.67829595      -1.89878304    7974.83043524   -5491.52651659   11502.54988028
O       -6.45340525       5.23845673      14.93999583  747741.32721741 -786907.68426522  329803.01039635
O        0.58118199     -17.27981688       0.98904523     151.48441996    -821.32610925   -2743.36362908
O        1.19625762       9.41583855      12.98734282   27942.52110899   17723.67780018    7069.12453827
O        8.29911137       3.50148244      17.56358791    -321.00014014   -2060.56320665    -234.69477486
O       12.13761342       0.09715538       9.65082856 -12606771.52656435 -9297537.19372595 14340125.26165397
O        9.85000102       6.12663881      -0.94631194   -2270.75709974    1360.00265417   -1916.30731901
O        1.38768682       9.48811929      14.29810587  -56974.84858592   43959.54882514  -21041.33069038
O        7.23580390      12.57888200       0.61664399     990.67631406    -112.89597843    -707.17446941
O        8.95581730       0.22735590      16.89388528     100.48677725     -35.80987801    1207.83712441
O       24.62207699      -1.42152739       2.25654847     -58.12231801     743.89285112    2077.97891405
O        1.12714718       1.82421443      10.97139919    9761.61429721  -19969.96763918   29311.76334057
O       -0.86289834       3.39352741       3.35280089    2097.59739976   -1870.07074629      12.84430793
O       -4.04483402       8.41879494       9.46913196  -12544.73297699   39940.35419827   13092.64395900
O       11.95218380      22.40690811      12.99061931 1256448.59538841 -484219.22652888 1100183.83109962
O      -11.67428635     -11.95995548       9.59581595 -389085.82490573   19177.01872845  164946.34317023
O        1.94569158      17.95332131      11.14413490    2516.88246437   -2734.77416381    -761.80022355
O       10.72126211       3.01110470      16.89771551    -862.93103547     761.62964050    1562.98323144
O      -19.83583336      21.86321943     -13.86545932   -9590.96016779   10259.39027370   21015.07406934
O        3.07823171       7.92902637     -11.38906191   -9768.51623338  -44117.63497637  -31643.93371719
O        5.80396143      -4.97627134      22.66372419     235.98420332   -1501.80135825    8324.89224644
O       -0.71894136      -0.05306134      10.05687155 -28319363.17434539 -715314.61541548 -8002040.73391576
O        0.87161363      -1.45810819      10.19522974 -156826.87043420   89578.66632580   66612.09022212
O       -2.37216522       3.26115935      12.50741356   14405.94190917    7619.88705513  -25253.69172313
O       -3.36004676       6.45779932       2.55318062     256.92405334    -330.91310515    2304.08152397
O       -4.83958476      -8.97679551      30.40195139   13224.57296378    7635.23348339   16075.78436290
O       13.42104849      22.25652153      11.53612852  114811.88965129   15393.92752096 -283385.27672517
O        0.34392409       3.61866263       3.66889895    1398.73862994    1162.64532205    2322.72270970
O       -1.21175920       7.52347937      14.07991609   34086.57810655  -24328.96982386   14437.70942394
O       10.00680031      11.00947303      13.36650047   36564.47535620  -26672.78502093    2782.61543372
O       15.23586475      12.79534485      -0.32122829   -4251.36561009    4904.52841440   -2327.07549272
O       -5.71225663      -4.09004503      -0.15391710   -1028.18617710     -30.02909658    -211.75674884
O       11.72001877       2.21150492      28.32748485  237170.06066599 -214238.22125282 -120899.73537709
O        5.52707781      13.67034185      22.43695680    -787.82164018   -9421.15617869    8504.57380008
O       -7.18278300      12.35317657      25.03827146  -22866.49809527  -65834.53643808  -92226.96872760
O        1.21201792      -7.53067078      26.90889916    -468.81210751  -22906.58151333   -3609.22659041
O        7.47816787       8.83712767      28.13503565   14190.54724396   90456.77260646  -25660.63037268
O       -2.79580026       2.45722236      -0.11783419     992.81173824    2759.08100311    1390.62595297
O       -5.48722707      -4.83372798       2.31793915   -4276.85063008    1172.42532410    5258.70218487
O        6.71797469       3.36121494     -13.52245414    1402.20914134     742.78337606    -270.03325476
O        5.17167952       4.36024833      -0.63798739    1277.96092242     246.23258690    3444.98954669
O       11.66114396       6.38739318      -0.15732989     125.93576498    -475.86305480    1129.74578333
O        2.43942315      10.52318677      16.10661412   -3288.20321872     221.20358942    1319.89488361
O       -1.40743082       5.89842445       3.43026635     -47.50733332    -670.28631743      96.64443818
O       11.67118046      24.63886040      18.37132179     815.45614235    -516.28040629    1004.08183861
O       -2.59346091      17.04306024      11.98019023   17035.22804874  -11408.27257856   -1050.48392938
O       -0.17724528      12.02428429      -5.33653919  107517.43252842  131793.52774333  100402.51098325
O       -8.31086580       6.00051388      14.77531487  -26471.35061546    6726.90775618  -22209.42281564
O       -7.59646377      -3.49649264      18.50121428     195.22029099    -300.15701565    1435.58498848
O       18.32845464     -13.78352018       6.99585491   16750.44787181  -44280.85585268  119504.29646851
O       -4.78544887      -1.19529120       5.94246354   -9043.03830711  -12488.81829819    9604.98050562
O       19.59609264      -4.94690786      21.16111523    3479.39199416     299.43580060    2678.11900917
O        4.70556433       4.47115395       7.31320354    9969.09183394  -14865.09820397   14901.43028311
O        6.15118495      18.74444702       8.42518800   13741.86332676   12455.80267607    2958.60451680
O       -1.59843674      10.08567180       0.39885980    -293.70087251     188.02890582   -1129.96394269
O        9.62542155       6.43098834       0.54175737      99.99182230     416.16758612     131.03728245
O       -7.77725809      23.47969875      23.05383423    4978.62747504   11766.36520079   13796.95200713
O       -6.29560567      -9.74207293       7.30452488 -135768.11236987  -62796.46383772  147642.02481507
O       11.76470206      -1.58259043      23.53140771    -548.59700270    8780.83244095    7219.27256743
O       13.21728276      -5.21441359      15.81164513  -20847.97199822   47607.29275707   39611.52123228
O        3.69415188      14.86064998      21.89537434     178.37375869    -540.89696201    -397.81248991
O        9.50541816      -0.95603006      22.73454773    5511.67880256   -1775.48730656    6448.99484073
O        7.74575588       8.88437334       2.61779595    -144.92973145   -1707.74000314     598.28846984
O        6.76014709       4.78161934      -7.75018476     292.75061181   -6423.38969966    2881.18699530
O      -14.95685939     -24.33219266       0.71103714     376.44079843    -115.31643132    -814.93075084
O      -23.17785633      11.20369467       7.06107551   25743.05295895    4169.92514377   27378.22826991
O       -1.14511708      13.02072252      14.70652776  -15839.13325855   -9954.74851782  -28401.93901343
O      -10.29054383     -20.41190531      27.15731648  117905.70242754  -24489.48584168   93187.00767567
O        6.85484173       1.23171144      -2.61623137  -26544.06695525  -29765.13400581   23879.87832992
O       12.13113339       0.99025960       8.60685037 -532018.94186548 1771094.41917565 1193510.26809343
O        0.16798989       9.59648716       7.50870513   -9524.14466463   35628.20676610   -4825.01002045
O       17.78671805      17.79451270      -3.50813197  -38041.24168265    8156.98041321   22342.43913263
O       20.96339754       3.14807655      -6.17403541   -1449.01580677   -6413.11307191  -13882.35151802
O        5.30125742       1.46395450     -10.67404703 -900591.81044348 -2391530.37917184 1417717.81800136
O        4.01991104       5.34685611      20.13063695    -128.85641757     169.16297472    1175.18933587
O       -4.82465910       6.80985766      24.91786515 -1839326.84151344 -667516.83820273 -934300.67890774
O        2.68583610       0.91293202      15.58356664     669.28280599     571.53439432    2911.82207517
O       22.52304596     -11.83432949      22.49311125    2426.51913979    -102.72403348    3809.37043446
O       -8.78177040       8.80281924       0.71542256     477.37477296     197.64034349    -518.96740870
O       13.49652130       4.91490843       2.24944588     -30.11820990   -1976.78886725     364.04899906
O        5.92800539      19.82150010       1.50273950    -168.28428842     101.19085214    -931.08022050
O       -4.90302037       5.27126933       7.61504572    2611.23506934   -9382.42266612     541.19366709
O       -4.87268689       9.52167973      15.37306348  -18104.23344252    8134.79785964  -17473.12909056
O       12.31833702       9.38896965       8.93891466   59334.37686824   72898.35287858   99870.17906324
O        5.00534210      12.08868448      10.01571201 24138727.50513864 -3502089.11916259 -3736871.90994964
O        2.54604445      10.36824696       1.09155113    -359.96931646      20.89494931    -370.82948659
O       -0.34845330       8.89021045      -0.99241964     840.77975246     179.94355348    1417.13924364
O        5.91403613       0.63811298      20.68537190    -497.01451049     539.70163167     500.67904527
O        9.89844689      -7.51405979      -0.00766898    -164.23345380    3871.50762609      21.29136389
O       -3.95920716       6.41747654      16.30047203    6585.20536606    5443.64075671    5891.81133720
O       -7.44631085      23.11630317      14.10274019 -137260.97939312  261277.99667468   42217.52729948
O        6.50620246      10.73245618       9.88049204  -56644.72912109  100384.35738556 -409240.39911915
O       11.76516124      12.76280020       5.84050639 -116807.54888763  145349.02125280  168765.37234279
O       -8.59156661      18.98853529       7.05607680    5944.45286011    1406.30580415   -1622.43165958
O       -0.40626712       6.00411919      15.64321336    3266.69919254   10718.40835115   27782.82474670
O       -3.06345623       1.42642442      10.07413741  535841.88068840 -442297.00334687  -61459.13725788
O        3.13605820       4.51145136      11.82023761    4478.08001556  -23860.35529156   -8133.77652990
O       -1.41578294      -0.24655199       9.93283185 19378222.76059016 4626146.42770124 -4073214.66807363
O       -9.29029286      15.77034231      13.55399926    2424.17107568    3816.59834626   -4649.81591166
O        8.69980408      13.39633540      -0.46333312   -3546.85703068   -8604.32454246     457.38369952
O        4.74250026      13.55908425       0.36884307    1462.71517882     820.89514881    1076.00288316
Na       7.51689919       5.13650909       4.25660760   -1804.29910057  -12195.40699002   -4975.78973265
Na      18.48326137     -12.15839420      -5.13574890   76682.63008667 -385710.08223839 -195990.10830064
