114
Lattice="6.5063 0.0 0.0 0.0 11.912 0.0 0.0 0.0 18.995" Properties=species:S:1:pos:R:3 Na4=T Sn2=T Ge5=T O16=T energy=-632.4814387352008 pbc="F F F"
Sn      -0.07477959       5.57114027       7.87118864
Sn       6.58105905       6.34085742      11.12381452
Sn       2.16897089      11.23310601      16.90786436
Sn       4.33731272       0.67890263       2.08712942
Sn       5.58128165       7.11504177       2.13012022
Sn       0.92501493       4.79696873      16.86489422
Sn       3.02241827      11.06410538       9.35269151
Sn       3.48386002       0.84789117       9.64232636
Ge       4.61684403       6.36960955       8.07792555
Ge       1.88943062       5.54237713      10.91708504
Ge       5.56596629      -0.39997352      17.32842617
Ge       0.94045968      12.31194583       1.66646568
Ge       2.48769836       6.18090906       2.89628722
Ge       4.01859350       5.73110577      16.09871250
Ge       2.05392594      -1.31671720      11.61415992
Ge       4.45239437      13.22869560       7.38085986
Ge       3.19843099       1.82312804       4.98799257
Ge       3.30784460      10.08887248      14.00700244
Ge      -0.19565821       4.68589907      13.29136216
Ge       5.48923406       4.76893207      14.03771353
Ge       1.01705913       7.14307307       4.95729045
Ge       6.70193927       7.22608591       5.70365296
Ge       2.70617593       3.62092772       7.59097959
Ge       3.80009764       8.29105753      11.40403008
Ge       1.06681438       1.54499098      16.45203224
Ge       5.43952965      10.36701711       2.54297369
Ge       2.60636989       3.48479963       2.44202786
Ge       3.89992238       8.42721547      16.55296289
Ge       4.60859341       3.49758473      11.38311672
Ge       1.89768831       8.41441238       7.61189864
Na       0.91791217       1.07909616      13.31700448
Na       5.58844881      10.83289727       5.67799099
Na       5.12035223       4.00261550       0.96180543
Na       1.38595743       7.90939056      18.03321131
Na       4.44476538       2.26793388      16.27583023
Na       2.06161874       9.64403534       2.71913286
Na       0.88142908       2.70422398      10.53568374
Na       5.62483512       9.20776716       8.45932473
Na       1.31525713       0.06211377       3.66802462
Na       3.55256142      -0.90739622       6.66109344
Na       2.95368557      12.81941387      12.33392152
Na       5.19101261      11.84990968      15.32694774
Na       2.50308349       3.69360523      13.80657849
Na       4.00321256       8.21842130       5.18844779
Na       0.49885034       4.21400780       4.75225509
Na       4.81068221       4.72718021       4.92743216
Na       1.69557348       7.18482763      14.06758188
Na       6.00743827       7.69799549      14.24274946
Na       2.35454907      -0.90043859      15.32642903
Na       4.15179105      12.81243185       3.66858993
O        5.61179882       5.98576670       6.63665706
O        0.89447535       5.92622252      12.35835224
O        4.33755115      -0.27618308      16.12067403
O        2.16880540      12.18818995       2.87429072
O        1.05291812       7.46307120       3.19799929
O        5.45338385       4.44894207      15.79700350
O        1.56776694      -1.05395995      13.23486267
O        4.93857115      12.96593679       5.76016256
O        5.65623754       7.06861660       9.28646377
O        0.85003926       4.84337218       9.70854377
O        5.81808369      11.98141407       2.30270256
O        0.68829284      -0.06940865      16.69233886
O        0.19524514       6.13007985      17.99810452
O        6.31105425       5.78193354       0.99691057
O        1.78201776      10.05706261       8.19531521
O        4.72426341       1.85493473      10.79969863
O        3.59478213       7.78535862       7.52515969
O        2.91149664       4.12663166      11.46985720
O        3.53934940      12.54097952      16.55088547
O        2.96691849      -0.62895914       2.44408909
O        3.53038346       7.34607936       2.05557916
O        2.97591293       4.56593965      16.93942673
O        2.50132604      12.64370211      10.26176433
O        4.00494906      -0.73170215       8.73324643
O        3.62186479       4.92933765       8.40211995
O        2.88441161       6.98264736      10.59288961
O        5.88773878       1.21675840      17.76078391
O        0.61875418      10.69520559       1.23408967
O        1.39288232       4.81716036       2.23983682
O        5.11341343       7.09485695      16.75515181
O        1.99171471       0.44697550      11.02565386
O        4.51457052      11.46500438       7.96936763
O        2.44499219       2.33627424       8.76719663
O        4.06127619       9.57571161      10.22781414
O        0.36070722       2.90239111      17.31059652
O        6.14560536       9.00961012       1.68439637
O        3.29480888       2.46469734       1.21015249
O        3.21149045       9.44731624      17.78484270
O        5.72421142       4.54327755      10.59382250
O        0.78206586       7.36871976       8.40118639
O        1.16279240       4.11400486       6.93409662
O        5.34348440       7.79798650      12.06090975
O        2.19087155       1.90561744      15.18317149
O        4.31546020      10.00639229       3.81182511
O        3.85657084       4.71030124       2.85677828
O        2.64972172       7.20171061      16.13821955
O        4.92501888       3.30747027      13.16856180
O        1.58127557       8.60452860       5.82645110
O        3.71578483       3.06216355       6.20250867
O        2.79049027       8.84982539      12.79250046
O        3.97326252       5.82396806      14.25084160
O        2.53302506       6.08803176       4.74415906
O        1.91745860       2.57952796       3.84478376
O        4.58882894       9.33248708      15.15020664
O        0.29274920       3.11865046      12.68265473
O        6.21354005       8.79333545       6.31236598
O        2.34671457       0.47619300       5.60568828
O        4.15955018      11.43580858      13.38929657
O        0.72039678       5.02703163      14.87184345
O        5.78588661       6.88497730       4.12316871
O        4.61499987       1.72249648       3.93970064
O        1.89128181      10.18950568      15.05530373
O        6.76848399       5.67836441      13.31349553
O       -0.26219190       6.23363889       5.68150451
