114
Lattice="6.5063 0.0 0.0 0.0 11.912 0.0 0.0 0.0 18.995" Properties=species:S:1:pos:R:3 Ge5=T Na4=T O16=T Sn2=T energy=-632.4851993803187 pbc="F F F"
Sn      -0.07548985       5.57711081       7.87780441
Sn       6.58367603       6.33347372      11.11654807
Sn       2.18566399      11.22591465      16.90867041
Sn       4.32473811       0.68625003       2.08571746
Sn       5.56075151       7.12073101       2.12191620
Sn       0.94459422       4.79174171      16.87181266
Sn       3.01708579      11.06415282       9.37219238
Sn       3.49006926       0.84671102       9.62351769
Ge       4.61566166       6.37277675       8.07452208
Ge       1.89317130       5.53851418      10.91964375
Ge       5.50931570      -0.36616673      17.42724858
Ge       0.99051564      12.27704840       1.57311803
Ge       2.47174321       6.18484906       2.89872359
Ge       4.03535431       5.72573930      16.09720553
Ge       2.08079143      -1.32020852      11.60960756
Ge       4.42363178      13.23275020       7.38584271
Ge       3.18809097       1.83362836       4.98540197
Ge       3.32043210      10.07801607      14.00928698
Ge      -0.18357614       4.67700327      13.30068883
Ge       5.49701529       4.76019705      14.03038979
Ge       1.00922732       7.15042141       4.96507270
Ge       6.69135122       7.23584290       5.69362263
Ge       2.70083788       3.62594466       7.58947265
Ge       3.80778585       8.28590353      11.40514774
Ge       1.06331486       1.54423327      16.44562087
Ge       5.43834740      10.36866778       2.54995480
Ge       2.58560831       3.49122308       2.43953874
Ge       3.92214093       8.41982077      16.55522563
Ge       4.61163177       3.49247317      11.37399090
Ge       1.89646770       8.41945325       7.62131344
Na       0.91672402       1.06638214      13.32746842
Na       5.58639702      10.84662925       5.66911566
Na       5.09474206       4.00812104       0.95119933
Na       1.41292704       7.90474560      18.04281570
Na       4.42363279       2.29490564      16.31517527
Na       2.07778557       9.61724853       2.68620245
Na       0.89227345       2.70130753      10.54057052
Na       5.61604376       9.21033632       8.45428890
Na       1.30721368       0.06499818       3.67228113
Na       3.58434881      -0.90007602       6.62424752
Na       2.92379030      12.81139361      12.36979323
Na       5.20298981      11.84611002      15.32084068
Na       2.51579337       3.67999417      13.80098057
Na       3.99102985       8.23022172       5.19285428
Na       0.48134165       4.22242622       4.75644359
Na       4.79870635       4.73573808       4.91924678
Na       1.71024800       7.17608089      14.07488218
Na       6.02562240       7.68757428      14.23872725
Na       2.36169194      -0.89849070      15.32963688
Na       4.13771786      12.80941427       3.66663582
O        5.60428272       5.99452195       6.62754553
O        0.90391747       5.91839957      12.36678021
O        4.31373323      -0.25917955      16.18548714
O        2.18330759      12.16988689       2.81756736
O        1.03648704       7.46699115       3.20535874
O        5.46932918       4.44260728      15.79011422
O        1.59556507      -1.05456824      13.23002233
O        4.90717868      12.96782848       5.76483993
O        5.65917905       7.06829068       9.28166424
O        0.84888874       4.84239384       9.71312737
O        5.83640282      11.98268839       2.34203788
O        0.66220726      -0.06913284      16.65243159
O        0.22464568       6.12324138      18.01231213
O        6.28111999       5.78922254       0.98182076
O        1.78036500      10.06149811       8.20517799
O        4.72718280       1.85083447      10.78959218
O        3.59395111       7.79308407       7.53044190
O        2.91397192       4.11900010      11.46391760
O        3.54678638      12.53879229      16.53971583
O        2.96500335      -0.62841964       2.45565808
O        3.50901601       7.35396706       2.05617182
O        2.99655229       4.55780172      16.93953258
O        2.47877836      12.62884810      10.29633524
O        4.02785377      -0.71761141       8.69813300
O        3.61586786       4.93656765       8.39695444
O        2.89253425       6.97545128      10.59685500
O        5.82354638       1.25374265      17.85138217
O        0.67972877      10.65715420       1.14664212
O        1.37197573       4.82398508       2.24266747
O        5.13529051       7.08690711      16.75268926
O        2.00259101       0.43749701      11.00857140
O        4.50469971      11.47461529       7.98624033
O        2.44484492       2.34101918       8.76577013
O        4.06399882       9.57086421      10.22866386
O        0.37602363       2.89890022      17.32269977
O        6.12735273       9.01428426       1.67353694
O        3.27109379       2.47047309       1.20718926
O        3.23687011       9.44062792      17.78758049
O        5.72393843       4.53978766      10.58182277
O        0.78456442       7.37143322       8.41319946
O        1.15488514       4.11772652       6.93807525
O        5.35344871       7.79378766      12.05744654
O        2.19615761       1.90829148      15.18624630
O        4.30695069      10.00442523       3.81055230
O        3.83837785       4.71670925       2.85110355
O        2.66879527       7.19524011      16.14309310
O        4.92981499       3.30190157      13.15924510
O        1.57622728       8.60818296       5.83621173
O        3.70882616       3.07320243       6.19786469
O        2.79943341       8.83927194      12.79635161
O        3.98443020       5.81865294      14.24930676
O        2.52212843       6.09201370       4.74668707
O        1.90296136       2.58522783       3.84498093
O        4.60501317       9.32495497      15.14944232
O        0.30495093       3.11090466      12.68872394
O        6.20280879       8.80199057       6.30475837
O        2.34193270       0.48523665       5.60800532
O        4.16645306      11.42651927      13.38699504
O        0.73219236       5.02052547      14.88046201
O        5.77526945       6.89204497       4.11364518
O        4.60355320       1.73540881       3.93414491
O        1.90506965      10.17742684      15.06010127
O        6.77557122       5.66813884      13.30238302
O       -0.26824528       6.24179476       5.69429433
