114
Lattice="6.5063 0.0 0.0 0.0 11.912 0.0 0.0 0.0 18.995" Properties=species:S:1:pos:R:3 Na4=T Sn2=T Ge5=T O16=T energy=-632.9705109583821 pbc="F F F"
Sn      -0.14002841       5.55253132       7.92825616
Sn       6.49611328       6.35907923      11.06821465
Sn       2.29913295      11.23370414      16.95647754
Sn       4.33981501       0.61247400       2.34049164
Sn       5.39919782       7.04090902       2.03868337
Sn       1.17131285       4.73501397      16.99578470
Sn       2.71279049      11.03476647       9.63263287
Sn       3.71170725       0.84687124       9.14832458
Ge       4.54081953       6.51652802       8.05018173
Ge       1.89613734       5.36007073      10.95380587
Ge       4.53166518      -0.41778199      18.43421876
Ge       2.03570571      12.32653387       0.61011580
Ge       2.35569698       6.13767844       2.90287501
Ge       4.17519225       5.70865191      16.05366636
Ge       2.77714061      -1.04895676      11.66290178
Ge       3.91461728      13.05065064       7.35537200
Ge       3.13905505       1.95151979       5.11236251
Ge       3.30334525      10.02669413      14.02099946
Ge      -0.00421423       4.35025157      13.46123054
Ge       5.52573496       4.68852443      13.93231903
Ge       0.93812558       7.15761793       4.99883582
Ge       6.53628825       7.44388474       5.59980252
Ge       2.66931316       3.75484893       7.58745896
Ge       3.70088118       8.20881582      11.46470635
Ge       1.34486830       1.58858079      16.35232853
Ge       5.38865419      10.15735598       2.83600788
Ge       2.50236606       3.43467306       2.48567388
Ge       4.02247037       8.40672075      16.52923742
Ge       4.68667307       3.40332280      11.21686786
Ge       1.75254812       8.46983943       7.68625221
Na       0.24406973       0.65287941      13.56448524
Na       6.39878430      11.18048719       5.62210882
Na       4.99126381       3.88819483       0.94765457
Na       1.53046745       7.88820689      18.04959306
Na       4.58079810       2.58046624      16.85072633
Na       2.02440612       9.28468529       2.27424893
Na       1.13069132       2.44336560      10.59905626
Na       5.32487097       9.38375192       8.44170020
Na       1.26952541       0.11777808       3.95831852
Na       3.92955111      -0.82486742       5.71951014
Na       2.58010324      12.76700004      12.75553956
Na       5.23825866      11.80059059      15.19562970
Na       2.73322163       3.12155716      13.66592116
Na       3.82952840       8.61566278       5.31600535
Na       0.35365542       4.23729295       4.76397946
Na       4.70947231       4.88967654       4.91130754
Na       1.81014702       6.93002704      14.06673042
Na       6.10834766       7.66196968      14.21390323
Na       2.59299484      -0.65912149      15.19065864
Na       4.22844371      12.54329512       3.81809475
O        5.51834417       6.19045407       6.59037220
O        0.90928195       5.62750420      12.43345311
O        3.15923041      -0.46459773      17.38687894
O        3.29087420      12.50699321       1.75936442
O        0.92239374       7.42138200       3.22157120
O        5.62069194       4.44502009      15.71007046
O        1.82865126      -0.81188276      13.06254004
O        4.90401907      12.81226471       5.98443896
O        5.57306029       7.18747587       9.28288588
O        0.85369832       4.70645304       9.72977733
O        6.32021953      11.44418635       3.40611501
O        0.39836400       0.31871347      15.77021515
O        0.36869127       6.09516170      18.04054549
O        6.16451148       5.70056461       0.93660340
O        1.58354959      10.10520158       8.28000466
O        4.82593430       1.78916063      10.56543071
O        3.48628200       7.92784332       7.57878911
O        2.97231199       3.96657110      11.42558502
O        3.63635967      12.53543333      16.45727490
O        3.19803397      -0.71314739       3.20538407
O        3.33219172       7.23342476       1.90396301
O        3.23721516       4.62993618      17.09516833
O        1.96815031      12.39249258      10.71762852
O        4.48826660      -0.38669186       7.93737932
O        3.54876220       5.08853482       8.38275523
O        2.81217186       6.85844016      10.71772908
O        5.45124568       0.99210296      18.18320381
O        1.23354534      10.84531861       0.80010069
O        1.27301387       4.75204862       2.28071398
O        5.27657850       7.09979542      16.63345446
O        2.25973283       0.27538121      10.53451497
O        4.24320607      11.53814948       8.33210373
O        2.56251774       2.41984498       8.71270804
O        3.81990593       9.49415635      10.28215965
O        0.71881755       2.82482578      17.43240129
O        5.96247745       8.95084558       1.70333416
O        3.18569142       2.33139501       1.32396260
O        3.36120854       9.42345978      17.78036280
O        5.72167215       4.55826756      10.45869037
O        0.69685659       7.37046820       8.49377156
O        1.10272579       4.15629707       6.93185571
O        5.28972910       7.76941640      12.06059457
O        2.81729869       1.86597012      15.50110916
O        3.83281312      10.01405884       3.55608848
O        3.74897172       4.67961996       2.84721126
O        2.78170875       7.16826821      16.12794759
O        5.06128432       3.22314216      13.00979731
O        1.45549859       8.62883104       5.88396614
O        3.67246832       3.29341317       6.17584291
O        2.72513605       8.73869238      12.88349141
O        4.01176233       5.71285846      14.21713872
O        2.44694448       6.10252240       4.73997262
O        1.82903927       2.58861019       3.92154257
O        4.64963489       9.32633071      15.10531247
O        0.45305020       2.75892707      12.85535697
O        6.07629923       9.03798293       6.20306680
O        2.27776289       0.69172082       5.88051424
O        4.09653768      11.36954560      13.31246741
O        0.96738738       4.75919617      14.98100660
O        5.56004246       7.02798736       4.06223109
O        4.59056558       1.78382938       4.10176906
O        1.91974946      10.21591493      15.10849232
O        6.76431420       5.65415947      13.18547719
O       -0.34046536       6.25721908       5.74303896
