114
Lattice="6.5063 0.0 0.0 0.0 11.912 0.0 0.0 0.0 18.995" Properties=species:S:1:pos:R:3:forces:R:3 Na4=T Sn2=T Ge5=T O16=T energy=-662.4754723103822 stress="-0.028663077339770665 0.00023919823363139644 -0.0009854420882598482 0.00023919823363139644 -0.03325344627915752 0.0010401313815888013 -0.0009854420882598482 0.0010401313815888013 -0.03440844121900154" free_energy=-662.4754723103822 pbc="T T T"
Sn       1.26547381       6.30374821       7.35124669      -0.00010114       0.00008034       0.00006913
Sn       5.14663281       5.77404358      11.68840133      -0.00007299       0.00004569       0.00000099
Sn       2.13605359      11.38266409      17.11859430       0.00005855       0.00005624       0.00000200
Sn       4.85035467       0.46523111       2.14037690      -0.00004205      -0.00005508       0.00001260
Sn       5.36471226       6.43305887       2.07140698      -0.00014347       0.00006251      -0.00010284
Sn       1.70541578       5.42224190      16.76415013      -0.00001511      -0.00006051      -0.00010627
Sn       4.54229509      11.69306827      11.51528135       0.00008899       0.00005042      -0.00007834
Sn       1.82233848       0.36740917       7.34147830      -0.00000534       0.00000140      -0.00001413
Ge       4.59574058       5.99470284       8.29436218      -0.00003371      -0.00014261      -0.00007172
Ge       1.83668367       6.04114768      10.74156067      -0.00002905       0.00017577       0.00013629
Ge       5.36216616      -0.09908419      17.86781615      -0.00001143       0.00007293       0.00002702
Ge       1.66336339      12.00613457       1.40158625       0.00004554       0.00007556       0.00006282
Ge       2.02855481       5.96506962       1.08817313       0.00016558      -0.00004989      -0.00011007
Ge       4.91046756       5.82072069      17.74562151       0.00010993      -0.00000212       0.00000345
Ge       1.34844356       0.10572329      10.63602050      -0.00010112       0.00004959      -0.00009629
Ge       5.12389789      12.04932443       8.22285996      -0.00020205      -0.00004114       0.00010694
Ge       3.43780497       2.00741663       4.77353336      -0.00008044       0.00001651      -0.00006525
Ge       3.22677095       9.84557842      14.21018860       0.00002824       0.00003883      -0.00011079
Ge      -0.45734490       4.65889755      14.90878580       0.00008978      -0.00020006      -0.00014428
Ge       5.71269463       2.51285498      14.25579755       0.00019407      -0.00014741      -0.00004220
Ge      -0.08515980       8.18298705       5.02221404      -0.00017298       0.00014980       0.00008945
Ge       3.69724595       8.41185728       6.11570504       0.00014542       0.00001764      -0.00000305
Ge       3.00287537       3.54199667       7.29960009       0.00013475       0.00003465       0.00005592
Ge       3.40415815       8.56515351      11.59909418      -0.00001992       0.00007581      -0.00005482
Ge       0.47240584       2.19986802      16.50472025       0.00011789       0.00003899       0.00000890
Ge       6.52492526       9.55368784       2.33109030       0.00002103      -0.00011665       0.00020537
Ge       3.64955400       3.58772722       2.20872820      -0.00012263       0.00007978      -0.00003235
Ge       3.34153982       8.29440882      16.73041049       0.00008028       0.00002945      -0.00015806
Ge       6.33267369       2.55573248      11.55089487       0.00006380       0.00007756       0.00005594
Ge      -0.04372971       9.38788768       7.28746574       0.00017221      -0.00004200      -0.00025953
Na       3.34243690       2.81044586      10.25814156       0.00001924       0.00008898      -0.00004416
Na       2.98014396       9.38640025       8.73487048       0.00001925      -0.00006860       0.00000444
Na       6.59456239       3.11688291       0.56621936       0.00000112      -0.00002194       0.00010076
Na       0.36128951       8.61080848      18.24541975      -0.00009781       0.00000575       0.00008566
Na       3.31351694       2.64313596      18.08587497       0.00011151      -0.00027177      -0.00003426
Na       3.61743696       9.17048952       0.78827437      -0.00012556      -0.00009386      -0.00000442
Na      -0.01812450       3.28630802       8.34943706       0.00000659      -0.00005313      -0.00009295
Na       6.29801711       8.80839755      10.28659658       0.00005053       0.00005477      -0.00003126
Na       0.49087332       2.06248425       4.06449170       0.00006668      -0.00001316      -0.00005965
Na       5.61939502      -0.43290211       5.33869551      -0.00022796      -0.00016947      -0.00011364
Na      -0.53541462      10.53412160      15.22822065       0.00023888      -0.00001200      -0.00002501
Na       7.55605716      12.11810794      13.54954121      -0.00014544      -0.00006295       0.00002442
Na       2.71114348       3.66292872      13.45398717      -0.00009589       0.00006881       0.00005751
Na       2.71761493       7.50152058       3.70308371       0.00011006       0.00026533      -0.00006488
Na       1.24924415       4.89341845       4.36007095       0.00024435       0.00011094       0.00011921
Na       4.68489284       5.33184919       5.23430173      -0.00023038      -0.00010576       0.00002474
Na       0.00072324       7.61903531      13.86633025       0.00009860       0.00011958       0.00008647
Na       2.95079351       6.51876017      13.91744298      -0.00010854       0.00000692      -0.00015894
Na       3.69026141       0.80997509      14.83022815       0.00000313      -0.00011613      -0.00010098
Na       2.38614934      10.70384637       4.51783243       0.00002347      -0.00000717      -0.00003677
O        5.87639225       5.64654375       7.14767973      -0.00005723       0.00000258       0.00000274
O        0.59517991       6.30243433      11.95441938      -0.00020170       0.00002792       0.00000492
O        4.12612680      -0.44345132      16.66501940      -0.00016770       0.00017233       0.00002649
O        2.90180480      11.98659295       2.65587970       0.00018838       0.00012613      -0.00003546
O        0.85186661       5.97918965       2.40620339       0.00001812      -0.00009570      -0.00007703
O        6.12523344       5.90399191      16.42616651       0.00007286      -0.00020271       0.00017345
O        2.59430053       0.25312988      11.88880833      -0.00003001      -0.00002509      -0.00003282
O        3.85234553      11.66940096       7.02461110       0.00004379       0.00007863       0.00009991
O        5.01073101       6.69400899       9.82460498      -0.00006137      -0.00006693      -0.00008698
O        1.43848126       5.33201346       9.19715385       0.00035614       0.00013754       0.00015014
O        4.86532914      11.21589596       0.45687872      -0.00003369      -0.00001101      -0.00004773
O        2.23604460       0.61768379      18.83875439      -0.00010380       0.00008385       0.00002891
O        1.52253333       6.52749975      18.51333449       0.00003950      -0.00000725       0.00006149
O        5.42099459       5.26877485       0.32639497       0.00005633      -0.00020101      -0.00011247
O        2.00219528      11.36260504       9.17622248       0.00008939       0.00006208      -0.00007727
O        4.65418071       0.87503400       9.75943173      -0.00005507       0.00008919       0.00008135
O        3.32290819       6.51271205       7.10095119      -0.00003641       0.00005119       0.00000513
O        3.11386737       5.16593696      11.64405518      -0.00003750       0.00008687      -0.00006717
O        6.68511919      10.76863773      17.32591511      -0.00012861      -0.00005026       0.00016099
O        0.33581966       1.11039369       1.98209480      -0.00003467       0.00002608      -0.00006890
O        3.36564638       6.96270368       1.67358492       0.00002124       0.00008085       0.00010266
O        3.65386381       4.79705692      17.06316547       0.00006637      -0.00004038       0.00007901
O        0.06142236      11.18994387      11.55293223      -0.00004988       0.00003665      -0.00002753
O        6.34595969       1.12042005       7.35442424       0.00009774      -0.00022663      -0.00000395
O        4.06151671       4.26419689       8.53581623       0.00003989       0.00011310       0.00018255
O        2.32530680       7.76123333      10.46083243       0.00017726      -0.00004434      -0.00008836
O        5.83429668       1.62150512      17.84711003       0.00004875       0.00011725       0.00004224
O        1.24405355      10.26324445       1.24287762      -0.00016581       0.00017825       0.00000804
O        2.48578336       4.22419818       1.01660872      -0.00015596      -0.00006719       0.00000870
O        4.55377991       7.58604391      17.82558324      -0.00005735      -0.00003527       0.00008574
O        0.86706227       1.83387435      10.31298797       0.00011325      -0.00000840       0.00012140
O        5.97452106      10.53625816       8.64258517      -0.00005082       0.00002483      -0.00008483
O        2.46571861       2.13277967       8.15390890      -0.00000601       0.00008917       0.00005456
O        4.01749184       9.90288971      10.68230138       0.00006147       0.00000080       0.00011072
O        1.05962424       3.61624260      17.50471857       0.00005305       0.00005075       0.00002455
O        5.79549611       8.32518739       1.30786577       0.00010354      -0.00005755      -0.00013957
O        4.39791955       2.30822687       1.29193956      -0.00005742       0.00004332       0.00006217
O        2.54703837       9.44710200      17.77423673      -0.00002072      -0.00007249      -0.00005286
O        5.69423229       3.98520237      10.80384989      -0.00002217       0.00019459       0.00020181
O        1.04114849       8.21674917       8.12008362       0.00001866      -0.00003546       0.00008349
O        1.62852895       4.35481015       6.57008023      -0.00009097       0.00001867      -0.00026577
O        4.78582322       7.75667514      12.27485849      -0.00016906       0.00010187      -0.00010361
O        2.05021477       1.36063264      16.24791482       0.00003997      -0.00007675       0.00011793
O        5.41443259      10.65492529       3.15260044       0.00008321       0.00010085      -0.00007730
O        4.80387136       4.64086453       3.02144389       0.00020889      -0.00000331       0.00000404
O        2.16103386       7.27546046      15.93258600      -0.00002848      -0.00019485      -0.00001154
O        4.88511497       1.73957120      12.32197205       0.00014085      -0.00014400      -0.00001201
O        1.09138419      10.58593806       6.39174188       0.00007079      -0.00003747       0.00004458
O        4.13832046       3.16393387       5.95119544       0.00005453      -0.00012175       0.00011794
O        2.32695649       8.81715109      13.04331161      -0.00004026       0.00014013       0.00008337
O        6.09958080       0.96869569      15.12645082      -0.00014754       0.00002282       0.00020576
O        1.01350494       8.92536826       3.65964844      -0.00006992      -0.00003761       0.00002953
O        2.56641336       3.07284184       3.56744398      -0.00003730      -0.00027733      -0.00008388
O        4.28542306       8.85554697      15.29247301      -0.00001364      -0.00003335      -0.00013621
O        0.80089527       2.51830992      13.03005775       0.00001577       0.00006563       0.00003926
O        4.78257999       8.51780836       7.59636789      -0.00011431      -0.00003532      -0.00006127
O        2.06192632       1.08267344       5.34975671      -0.00018773       0.00000106      -0.00011495
O        4.46051096      10.87477429      13.49147527      -0.00007192      -0.00009022      -0.00000915
O        1.39022576       4.98539901      14.76826447       0.00010716      -0.00007220       0.00010927
O        5.16221719       7.23293818       3.99264793      -0.00016149       0.00017542      -0.00011760
O        4.89276100       1.33318224       4.07273220      -0.00003391      -0.00004802       0.00012856
O        1.92680198      10.64882036      15.07152329       0.00014574      -0.00000263      -0.00014518
O        5.07397180       5.68095533      13.78118929      -0.00011014      -0.00007725       0.00013733
O        1.20324509       6.90534026       5.35909355      -0.00004653      -0.00009786       0.00003750
