114
Lattice="6.5063 0.0 0.0 0.0 11.912 0.0 0.0 0.0 18.995" Properties=species:S:1:pos:R:3 Ge5=T Na4=T O16=T Sn2=T energy=-631.8803895237143 pbc="F F F"
Sn       0.01579047       5.67228044       7.83348342
Sn       6.49048576       6.23968855      11.16153979
Sn       2.30095533      11.28304343      17.23468920
Sn       4.20534088       0.62897950       1.76029613
Sn       5.68050705       7.12716601       2.18236110
Sn       0.82571550       4.78486629      16.81260948
Sn       3.17740795      11.13684350       9.33459516
Sn       3.32883650       0.77511299       9.66041583
Ge       4.64526148       6.03474981       8.02953795
Ge       1.86100870       5.87720064      10.96545875
Ge       5.88301507      -0.27665532      17.14107965
Ge       0.62364360      12.18867536       1.85359289
Ge       2.54375283       6.15329828       2.78166417
Ge       3.96246103       5.75870044      16.21332656
Ge       2.13324243      -1.55099480      11.74836373
Ge       4.37311365      13.46305492       7.24676285
Ge       3.12283693       1.71665735       4.72456278
Ge       3.38347131      10.19533958      14.27042307
Ge      -0.15847019       4.70268594      13.22182417
Ge       5.42186266       4.77738936      14.13449571
Ge       1.08437217       7.13456359       4.86051526
Ge       6.66471204       7.20931652       5.77317495
Ge       2.69589565       3.42080320       7.47349331
Ge       3.81038796       8.49116807      11.52151289
Ge       1.02205982       1.51524224      16.52364815
Ge       5.48435755      10.39682267       2.47151090
Ge       2.61873663       3.48325393       2.23491731
Ge       3.88750767       8.42873456      16.76006834
Ge       4.46798381       3.63599013      11.47579924
Ge       2.03827604       8.27595352       7.51922101
Na       1.07944937       1.08391435      13.08287248
Na       5.42653960      10.82806495       5.91214958
Na       5.29959654       3.96952172       1.04477660
Na       1.20657589       7.94255508      17.95009457
Na       4.58560300       2.41954967      16.72526310
Na       1.92105704       9.49248727       2.26995022
Na       0.95320512       2.95085071      10.36787961
Na       5.55311158       8.96113181       8.62712974
Na       1.24211006      -0.05148056       3.37138232
Na       3.48683582      -0.77791904       6.66710241
Na       3.01944605      12.68987604      12.32790195
Na       5.26421645      11.96344536      15.62361868
Na       2.50768228       3.64487066      13.90528883
Na       3.99855926       8.26705040       5.08971852
Na       0.60507394       4.21645800       4.69607597
Na       4.73879063       4.76146977       4.89595917
Na       1.76745231       7.15053546      14.09899851
Na       5.90118974       7.69550503      14.29892783
Na       2.52046085      -0.70154411      15.38483555
Na       3.98610749      12.61384094       3.61014805
O        5.78479572       5.78635265       6.66935451
O        0.72145746       6.12563592      12.32562437
O        4.50496261       0.02410614      16.13365923
O        2.00177897      11.88815892       2.86097257
O        1.10411701       7.43791086       3.09827695
O        5.40212737       4.47409168      15.89674006
O        1.68628873      -1.10812833      13.34102422
O        4.82002984      13.02020232       5.65408622
O        5.41095159       6.84239175       9.36232798
O        1.09535763       5.06956060       9.63264205
O        5.54963963      11.97580658       1.91536996
O        0.95725411      -0.06366339      17.08006873
O        0.03466253       6.14068437      17.87574292
O        6.47151444       5.77138738       1.11913981
O        2.56532667       9.87653257       7.94701009
O        3.94102425       2.03540011      11.04796416
O        3.46276857       7.19599228       7.30431928
O        3.04342465       4.71587693      11.69067349
O        3.77424591      12.51104813      17.08400400
O        2.73207748      -0.59905501       1.91099475
O        3.61824506       7.35816025       2.03031142
O        2.88797285       4.55387055      16.96472461
O        2.32336531      12.51277352      10.30791276
O        4.18285491      -0.60083430       8.68710427
O        3.86991508       4.45647084       8.34811449
O        2.63638701       7.45547003      10.64688893
O        6.21093799       1.24370624      17.84491525
O        0.29561452      10.66814487       1.15019018
O        1.46592657       4.85636039       2.00521316
O        5.04029315       7.05562203      16.98980285
O        1.87388572       0.09130694      10.93129147
O        4.63236600      11.82070488       8.06376860
O        2.23688332       2.09927030       8.55720174
O        4.26939136       9.81269636      10.43779639
O        0.23848282       2.90499531      17.27549980
O        6.26778621       9.00704096       1.71956163
O        3.34504514       2.52740920       0.97245692
O        3.16119081       9.38458403      18.02251223
O        5.82503149       4.32470300      10.66678355
O        0.68118935       7.58729548       8.32822791
O        1.22020540       4.16895915       6.90519290
O        5.28607918       7.74301496      12.08981612
O        1.94644570       1.80686257      15.09822173
O        4.55961888      10.10515217       3.89670736
O        3.88520261       4.65837929       2.77107581
O        2.62103586       7.25363415      16.22386969
O        4.79403154       3.35077557      13.25777385
O        1.71222784       8.56116076       5.73724691
O        3.62953870       2.89239607       6.00928133
O        2.87673404       9.01959218      12.98571242
O        3.96843800       5.90844335      14.38035280
O        2.53779538       6.00351303       4.61463451
O        1.86622289       2.56100632       3.61277516
O        4.64005480       9.35096875      15.38222109
O        0.49183840       3.22837490      12.52228428
O        6.01432211       8.68362273       6.47266744
O        2.29065320       0.32958320       5.29416565
O        4.21568592      11.58239726      13.70081412
O        0.76131628       5.04145652      14.80480582
O        5.74495769       6.87053613       4.19016482
O        4.52262288       1.57290065       3.66390024
O        1.98366758      10.33914116      15.33105521
O        6.70822313       5.64735929      13.36610674
O       -0.20198312       6.26458829       5.62891007
